<?xml version="1.0"?> 
<VTKFile type="StructuredGrid" version="0.1"> 
<StructuredGrid WholeExtent="0 50 0 50 0 0"> 
<Piece Extent="0 50 0 50 0 0"> 
<PointData>
<DataArray type="Float32" Name="velocity" format="ascii" NumberOfComponents="3"> 
-1.57342e-17 0 0 2.51251e-18 0 0 -1.76033e-18 0 0 7.02533e-19 0 0 -5.34209e-19 0 0 2.2761e-19 0 0 -1.61021e-19 0 0 7.0541e-20 0 0 -4.49072e-20 0 0 2.08374e-20 0 0 -1.15892e-20 0 0 5.83984e-21 0 0 -2.72597e-21 0 0 1.53177e-21 0 0 -5.56363e-22 0 0 3.64046e-22 0 0 -8.28198e-23 0 0 7.17323e-23 0 0 7.0523e-25 0 0 7.65562e-24 0 0 7.61391e-24 0 0 -2.62928e-24 0 0 4.33234e-24 0 0 -2.48796e-24 0 0 1.83839e-24 0 0 -1.3191e-24 0 0 6.84356e-25 0 0 -5.33218e-25 0 0 2.35053e-25 0 0 -1.78441e-25 0 0 7.60614e-26 0 0 -5.36003e-26 0 0 2.33929e-26 0 0 -1.48257e-26 0 0 6.84896e-27 0 0 -3.78814e-27 0 0 1.89967e-27 0 0 -8.80175e-28 0 0 4.92197e-28 0 0 -1.76709e-28 0 0 1.15218e-28 0 0 -2.55246e-29 0 0 2.22243e-29 0 0 4.8759e-31 0 0 2.25711e-30 0 0 2.4077e-30 0 0 -7.64503e-31 0 0 1.22011e-30 0 0 -4.57732e-31 0 0 1.32404e-31 0 0 1.40529e-30 0 0 0.0784 0 0 0.0784047 -4.11126e-07 0 0.0783863 6.92407e-06 0 0.0783296 1.29455e-05 0 0.0782418 1.82937e-05 0 0.0781305 2.28427e-05 0 0.0779987 2.66156e-05 0 0.0778514 3.00071e-05 0 0.07769 3.31239e-05 0 0.0775164 3.61801e-05 0 0.0773314 3.91423e-05 0 0.0771357 4.20923e-05 0 0.0769298 4.50342e-05 0 0.0767142 4.79945e-05 0 0.0764892 5.09453e-05 0 0.0762554 5.38861e-05 0 0.0760131 5.67962e-05 0 0.0757629 5.96789e-05 0 0.0755052 6.25106e-05 0 0.0752405 6.53113e-05 0 0.0749693 6.80693e-05 0 0.0746918 7.08406e-05 0 0.0744082 7.36372e-05 0 0.0741183 7.65659e-05 0 0.0738219 7.96908e-05 0 0.0735178 8.31842e-05 0 0.073205 8.72001e-05 0 0.072881 9.19862e-05 0 0.0725431 9.78389e-05 0 0.0721871 0.000105095 0 0.0718081 0.000114215 0 0.0713996 0.000125636 0 0.0709532 0.000139997 0 0.0704598 0.000157882 0 0.0699073 0.000179955 0 0.0692834 0.000206881 0 0.0685715 0.000239274 0 0.0677564 0.000278161 0 0.0668193 0.000323611 0 0.0657425 0.000376222 0 0.0645009 0.000436033 0 0.0630759 0.000505405 0 0.0614439 0.000584539 0 0.0595879 0.000671467 0 0.0574467 0.000770553 0 0.0550041 0.000889559 0 0.0521619 0.00105542 0 0.0489422 0.00123994 0 0.0448578 0.00155975 0 0.0397083 0.00216649 0 0.0321859 0.00415036 0 0.1536 0 0 0.153599 2.04146e-06 0 0.153553 2.80597e-05 0 0.153439 5.10688e-05 0 0.153269 7.1825e-05 0 0.153054 8.90661e-05 0 0.1528 0.000103963 0 0.152515 0.000117259 0 0.152204 0.00012963 0 0.151868 0.000141574 0 0.15151 0.000153245 0 0.151131 0.00016484 0 0.150733 0.000176413 0 0.150315 0.000188011 0 0.14988 0.000199584 0 0.149427 0.000211109 0 0.148958 0.000222528 0 0.148474 0.000233825 0 0.147975 0.000244955 0 0.147463 0.000255954 0 0.146938 0.000266839 0 0.146401 0.000277763 0 0.145852 0.000288858 0 0.145291 0.000300454 0 0.144717 0.000312887 0 0.144127 0.000326744 0 0.143521 0.000342666 0 0.142893 0.000361573 0 0.142238 0.000384547 0 0.141548 0.000412927 0 0.140815 0.000448295 0 0.140025 0.000492438 0 0.139166 0.000547482 0 0.138219 0.000615715 0 0.137163 0.00069948 0 0.135976 0.000801214 0 0.13463 0.000923274 0 0.133096 0.00106851 0 0.131343 0.00123832 0 0.129338 0.00143436 0 0.127043 0.00165778 0 0.124422 0.00191295 0 0.121434 0.0022015 0 0.118044 0.00252369 0 0.114181 0.00288782 0 0.109799 0.0033164 0 0.104784 0.00384871 0 0.0990684 0.00450576 0 0.0923101 0.00542831 0 0.0842019 0.00695255 0 0.0743213 0.00985621 0 0.2256 0 0 0.225586 1.12062e-05 0 0.225506 6.43118e-05 0 0.225336 0.000113613 0 0.225087 0.000158245 0 0.224775 0.000195646 0 0.224408 0.00022838 0 0.223996 0.00025773 0 0.223545 0.00028513 0 0.223059 0.000311506 0 0.22254 0.000337319 0 0.221991 0.000362941 0 0.221413 0.000388506 0 0.220808 0.000414084 0 0.220176 0.000439606 0 0.21952 0.000465013 0 0.21884 0.000490197 0 0.218138 0.000515111 0 0.217415 0.000539688 0 0.216672 0.000563993 0 0.215911 0.000588102 0 0.215132 0.000612317 0 0.214336 0.000636976 0 0.213522 0.000662756 0 0.212689 0.000690424 0 0.211834 0.000721202 0 0.210955 0.000756485 0 0.210044 0.00079822 0 0.209095 0.000848656 0 0.208097 0.000910627 0 0.207038 0.000987377 0 0.2059 0.0010827 0 0.204666 0.00120085 0 0.203311 0.00134651 0 0.201807 0.00152451 0 0.200125 0.0017399 0 0.198229 0.00199746 0 0.19608 0.00230222 0 0.193636 0.00265766 0 0.190856 0.00306741 0 0.187691 0.00353405 0 0.184097 0.00406234 0 0.180021 0.00465559 0 0.175417 0.00531862 0 0.170216 0.00606417 0 0.16436 0.00691892 0 0.157748 0.00792953 0 0.150291 0.00915511 0 0.141801 0.0107416 0 0.132073 0.0129831 0 0.1211 0.0163358 0 0.2944 0 0 0.29437 2.94277e-05 0 0.294251 0.000116523 0 0.294025 0.00019984 0 0.293702 0.0002755 0 0.293299 0.00033971 0 0.292827 0.000396368 0 0.292298 0.000447466 0 0.291718 0.000495289 0 0.291093 0.000541304 0 0.290426 0.000586366 0 0.289719 0.000631074 0 0.288975 0.000675659 0 0.288196 0.000720227 0 0.287383 0.000764685 0 0.286538 0.000808931 0 0.285662 0.0008528 0 0.284758 0.000896205 0 0.283827 0.000939059 0 0.282871 0.00098147 0 0.281891 0.0010236 0 0.280889 0.00106595 0 0.279864 0.00110913 0 0.278816 0.00115428 0 0.277744 0.00120271 0 0.276645 0.00125647 0 0.275513 0.0013179 0 0.274343 0.00139024 0 0.273125 0.00147721 0 0.271846 0.00158347 0 0.270492 0.00171432 0 0.269043 0.001876 0 0.267476 0.00207533 0 0.265763 0.00231988 0 0.263873 0.00261745 0 0.261768 0.0029762 0 0.259408 0.00340378 0 0.25675 0.00390779 0 0.253743 0.00449415 0 0.25034 0.00516856 0 0.246486 0.00593488 0 0.242131 0.00679804 0 0.237219 0.00776223 0 0.2317 0.0088347 0 0.225511 0.0100296 0 0.218597 0.011373 0 0.210881 0.0129109 0 0.202293 0.0147134 0 0.192751 0.0169036 0 0.182176 0.0196842 0 0.170667 0.0232932 0 0.36 0 0 0.359953 5.79712e-05 0 0.359793 0.00018523 0 0.359511 0.000308956 0 0.359118 0.000421663 0 0.358631 0.000518499 0 0.358063 0.000604537 0 0.357426 0.000682581 0 0.356728 0.00075581 0 0.355975 0.000826312 0 0.355171 0.000895388 0 0.354319 0.000963905 0 0.353423 0.00103221 0 0.352483 0.00110044 0 0.351503 0.00116848 0 0.350484 0.00123619 0 0.349428 0.00130333 0 0.348338 0.00136977 0 0.347216 0.0014354 0 0.346064 0.0015004 0 0.344883 0.00156502 0 0.343674 0.00163001 0 0.342439 0.0016963 0 0.341177 0.00176556 0 0.339886 0.00183977 0 0.338562 0.00192191 0 0.337202 0.00201542 0 0.335796 0.00212501 0 0.334335 0.00225603 0 0.332805 0.00241525 0 0.33119 0.00261021 0 0.329468 0.00284987 0 0.327613 0.00314388 0 0.325596 0.003503 0 0.323381 0.00393826 0 0.320929 0.00446117 0 0.318196 0.00508252 0 0.315133 0.00581278 0 0.311689 0.00666036 0 0.30781 0.00763285 0 0.303441 0.00873517 0 0.298528 0.00997217 0 0.293014 0.0113476 0 0.286851 0.0128679 0 0.279986 0.0145451 0 0.272373 0.0164008 0 0.263963 0.0184729 0 0.254715 0.0208211 0 0.244615 0.0235343 0 0.233663 0.0267358 0 0.222008 0.0305333 0 0.4224 0 0 0.422335 9.73385e-05 0 0.422135 0.000270566 0 0.421798 0.000440043 0 0.421339 0.000594844 0 0.420774 0.000729327 0 0.420117 0.000849568 0 0.419382 0.00095924 0 0.418576 0.00106243 0 0.417707 0.00116188 0 0.416778 0.00125939 0 0.415794 0.00135609 0 0.414758 0.00145247 0 0.413672 0.0015487 0 0.412539 0.00164465 0 0.411361 0.00174011 0 0.410141 0.00183477 0 0.408881 0.00192845 0 0.407584 0.00202104 0 0.406253 0.00211275 0 0.404888 0.00220398 0 0.403492 0.00229573 0 0.402065 0.0023893 0 0.400608 0.00248694 0 0.399118 0.00259133 0 0.397592 0.00270646 0 0.396025 0.00283698 0 0.394409 0.00298913 0 0.392733 0.00317004 0 0.390983 0.00338863 0 0.389141 0.00365484 0 0.387185 0.00398042 0 0.385089 0.00437799 0 0.382822 0.00486158 0 0.380347 0.00544558 0 0.377623 0.00614491 0 0.374605 0.00697365 0 0.371243 0.00794523 0 0.367482 0.00907055 0 0.36327 0.0103589 0 0.358548 0.011816 0 0.353264 0.013446 0 0.347364 0.0152509 0 0.340801 0.0172339 0 0.333532 0.0194015 0 0.325525 0.0217672 0 0.316755 0.0243554 0 0.307208 0.0272063 0 0.296911 0.0303722 0 0.285911 0.033917 0 0.274358 0.0378701 0 0.4816 0 0 0.481518 0.000147497 0 0.481277 0.000372259 0 0.480889 0.000592015 0 0.480368 0.000793121 0 0.479731 0.000969532 0 0.478994 0.00112818 0 0.478169 0.00127365 0 0.477266 0.0014109 0 0.476292 0.00154339 0 0.475251 0.00167337 0 0.474148 0.0018023 0 0.472985 0.00193077 0 0.471767 0.00205901 0 0.470495 0.00218685 0 0.469173 0.00231401 0 0.467804 0.0024401 0 0.46639 0.00256491 0 0.464935 0.00268828 0 0.46344 0.0028105 0 0.46191 0.00293208 0 0.460344 0.0030543 0 0.458745 0.00317884 0 0.457111 0.00330854 0 0.455443 0.00344683 0 0.453737 0.00359873 0 0.451987 0.00377007 0 0.450185 0.00396871 0 0.448322 0.0042035 0 0.446383 0.00448557 0 0.44435 0.00482723 0 0.442202 0.00524297 0 0.439912 0.0057484 0 0.437449 0.00636075 0 0.434777 0.00709774 0 0.431856 0.0079777 0 0.428638 0.00901798 0 0.425076 0.010235 0 0.421116 0.0116421 0 0.416703 0.0132502 0 0.411782 0.0150653 0 0.406299 0.0170909 0 0.400205 0.0193257 0 0.393457 0.0217682 0 0.386022 0.0244169 0 0.377877 0.0272742 0 0.369017 0.0303484 0 0.359451 0.0336573 0 0.349226 0.0372211 0 0.338415 0.0410596 0 0.327162 0.0451567 0 0.5376 0 0 0.537501 0.000208045 0 0.537223 0.000489672 0 0.536785 0.000763592 0 0.536207 0.00101451 0 0.535506 0.00123644 0 0.534696 0.00143711 0 0.533792 0.00162202 0 0.532802 0.00179702 0 0.531733 0.00196622 0 0.530592 0.00213236 0 0.529382 0.00229719 0 0.528106 0.00246143 0 0.526769 0.00262535 0 0.525374 0.00278872 0 0.523923 0.0029512 0 0.522419 0.00311232 0 0.520867 0.00327179 0 0.51927 0.00342942 0 0.51763 0.00358557 0 0.51595 0.00374085 0 0.514232 0.00389682 0 0.512479 0.00405552 0 0.51069 0.00422038 0 0.508864 0.00439555 0 0.506998 0.00458706 0 0.505089 0.00480192 0 0.503128 0.00504949 0 0.501106 0.00534034 0 0.499009 0.00568766 0 0.496821 0.00610605 0 0.49452 0.00661263 0 0.492082 0.00722579 0 0.489477 0.00796586 0 0.48667 0.00885375 0 0.483621 0.00991103 0 0.480288 0.0111583 0 0.476621 0.0126148 0 0.47257 0.0142964 0 0.46808 0.0162157 0 0.463098 0.0183791 0 0.457573 0.0207886 0 0.451457 0.0234396 0 0.444713 0.0263247 0 0.437315 0.0294327 0 0.429247 0.0327539 0 0.420518 0.0362793 0 0.41115 0.0400051 0 0.401205 0.043924 0 0.390763 0.0480247 0 0.379957 0.052264 0 0.5904 0 0 0.590286 0.000278321 0 0.589973 0.000621859 0 0.58949 0.000953298 0 0.58886 0.00125691 0 0.5881 0.00152735 0 0.587226 0.0017731 0 0.586251 0.00200061 0 0.585184 0.00221657 0 0.584033 0.00242576 0 0.582803 0.00263137 0 0.581499 0.00283543 0 0.580124 0.00303878 0 0.578682 0.0032417 0 0.577176 0.00344392 0 0.575611 0.00364502 0 0.573989 0.00384441 0 0.572314 0.00404174 0 0.570591 0.00423677 0 0.568822 0.00442989 0 0.56701 0.00462182 0 0.565159 0.00481436 0 0.56327 0.0050099 0 0.561344 0.0052124 0 0.559381 0.00542669 0 0.557378 0.00565973 0 0.555333 0.00591963 0 0.553238 0.00621713 0 0.551084 0.00656438 0 0.548861 0.00697649 0 0.546552 0.00747011 0 0.544138 0.00806477 0 0.541597 0.00878142 0 0.5389 0.00964323 0 0.536016 0.010674 0 0.532909 0.0118985 0 0.529536 0.0133402 0 0.525853 0.0150213 0 0.52181 0.0169603 0 0.517357 0.0191714 0 0.512441 0.0216615 0 0.507013 0.0244317 0 0.50103 0.0274736 0 0.494454 0.0307735 0 0.487265 0.0343108 0 0.479453 0.0380627 0 0.471034 0.0420036 0 0.46204 0.0461094 0 0.452535 0.0503507 0 0.442602 0.0546932 0 0.432363 0.0590777 0 0.64 0 0 0.639872 0.000357492 0 0.639527 0.000767622 0 0.639004 0.00115947 0 0.638327 0.00151814 0 0.637516 0.0018395 0 0.636586 0.00213285 0 0.635549 0.00240564 0 0.634416 0.00266535 0 0.633194 0.00291742 0 0.631887 0.00316544 0 0.630501 0.0034117 0 0.629039 0.00365715 0 0.627506 0.00390207 0 0.625905 0.00414612 0 0.62424 0.00438879 0 0.622514 0.00462937 0 0.620733 0.00486741 0 0.6189 0.00510262 0 0.617019 0.00533539 0 0.615093 0.00556651 0 0.613125 0.005798 0 0.611119 0.00603252 0 0.609076 0.00627453 0 0.606996 0.00652941 0 0.604878 0.006805 0 0.602719 0.00711032 0 0.600514 0.00745737 0 0.598257 0.00785965 0 0.595937 0.00833395 0 0.59354 0.00889871 0 0.591051 0.00957557 0 0.588448 0.0103877 0 0.585709 0.0113608 0 0.582803 0.0125212 0 0.579698 0.0138965 0 0.576357 0.0155131 0 0.572737 0.017396 0 0.568794 0.0195662 0 0.564478 0.02204 0 0.559742 0.0248254 0 0.554536 0.0279227 0 0.548818 0.0313206 0 0.542553 0.0349998 0 0.535722 0.0389301 0 0.528316 0.0430763 0 0.520356 0.0473971 0 0.511875 0.0518503 0 0.502938 0.0563884 0 0.493627 0.0609596 0 0.48405 0.065495 0 0.6864 0 0 0.68626 0.000444603 0 0.685887 0.000925567 0 0.685328 0.00138029 0 0.68461 0.00179588 0 0.683755 0.00217006 0 0.682777 0.00251304 0 0.681689 0.00283334 0 0.6805 0.00313918 0 0.679217 0.00343661 0 0.677845 0.0037296 0 0.676389 0.00402068 0 0.674854 0.00431087 0 0.673243 0.00460045 0 0.671561 0.00488899 0 0.669811 0.00517585 0 0.667997 0.0054602 0 0.666125 0.00574147 0 0.664198 0.00601929 0 0.662221 0.00629401 0 0.660198 0.00656647 0 0.658132 0.00683882 0 0.656027 0.00711395 0 0.653885 0.00739671 0 0.651708 0.00769297 0 0.649495 0.00801123 0 0.647246 0.0083613 0 0.644956 0.0087562 0 0.642621 0.00921056 0 0.640232 0.00974253 0 0.63778 0.010372 0 0.63525 0.0111224 0 0.632626 0.0120187 0 0.629887 0.0130886 0 0.627009 0.0143608 0 0.623963 0.0158652 0 0.620716 0.0176309 0 0.617232 0.0196857 0 0.613468 0.0220533 0 0.60938 0.0247523 0 0.604922 0.0277924 0 0.600046 0.0311744 0 0.594711 0.0348852 0 0.58888 0.0389009 0 0.582533 0.043183 0 0.575661 0.0476849 0 0.568281 0.052351 0 0.560428 0.0571226 0 0.552163 0.0619367 0 0.543563 0.0667279 0 0.534727 0.0714206 0 0.7296 0 0 0.72945 0.000538623 0 0.729052 0.00109414 0 0.728463 0.00161377 0 0.727711 0.00208773 0 0.726819 0.00251616 0 0.725801 0.00291034 0 0.724671 0.00327993 0 0.723436 0.00363385 0 0.722103 0.00397874 0 0.720679 0.00431891 0 0.719166 0.00465708 0 0.717571 0.00499432 0 0.715896 0.00533088 0 0.714146 0.00566622 0 0.712326 0.00599957 0 0.710439 0.00632993 0 0.708491 0.00665661 0 0.706486 0.0069791 0 0.70443 0.00729771 0 0.702326 0.00761325 0 0.700179 0.00792795 0 0.697993 0.00824483 0 0.695771 0.00856902 0 0.693517 0.00890674 0 0.69123 0.00926699 0 0.688911 0.00966018 0 0.68656 0.0101001 0 0.684172 0.0106022 0 0.681742 0.0111856 0 0.679263 0.0118714 0 0.676725 0.0126842 0 0.674115 0.0136504 0 0.671416 0.0147994 0 0.66861 0.0161616 0 0.665672 0.017769 0 0.662575 0.0196529 0 0.659287 0.0218437 0 0.655772 0.0243678 0 0.651989 0.027247 0 0.647894 0.0304934 0 0.643442 0.0341097 0 0.63859 0.0380825 0 0.6333 0.0423855 0 0.627545 0.0469736 0 0.621313 0.0517904 0 0.614618 0.0567673 0 0.607488 0.0618307 0 0.59998 0.0669038 0 0.592166 0.071909 0 0.584134 0.076766 0 0.7696 0 0 0.769442 0.00063847 0 0.769024 0.00127169 0 0.768409 0.00185781 0 0.767629 0.00239115 0 0.766708 0.00287482 0 0.76566 0.00332136 0 0.764497 0.0037416 0 0.763226 0.00414516 0 0.761855 0.00453924 0 0.760389 0.00492842 0 0.758833 0.0053156 0 0.757189 0.00570186 0 0.755464 0.00608738 0 0.753661 0.00647151 0 0.751785 0.00685331 0 0.74984 0.0072316 0 0.747831 0.00760553 0 0.745765 0.00797444 0 0.743645 0.00833851 0 0.741477 0.00869848 0 0.739266 0.00905658 0 0.737017 0.00941588 0 0.734734 0.00978165 0 0.732421 0.0101603 0 0.73008 0.0105612 0 0.727713 0.010995 0 0.725321 0.011476 0 0.722904 0.0120202 0 0.720458 0.0126475 0 0.717979 0.0133795 0 0.715462 0.0142418 0 0.712897 0.0152615 0 0.710274 0.0164692 0 0.707577 0.0178966 0 0.704789 0.0195771 0 0.701888 0.0215439 0 0.698848 0.0238299 0 0.695639 0.0264643 0 0.692224 0.0294721 0 0.688564 0.0328691 0 0.684614 0.0366615 0 0.68033 0.0408379 0 0.675669 0.0453721 0 0.6706 0.0502151 0 0.665102 0.0553031 0 0.65918 0.0605557 0 0.652854 0.0658857 0 0.646175 0.0712029 0 0.639207 0.0764185 0 0.632032 0.0814466 0 0.8064 0 0 0.806235 0.000743032 0 0.805801 0.00145646 0 0.805167 0.00211022 0 0.804367 0.00270355 0 0.803424 0.00324305 0 0.802354 0.00374267 0 0.801167 0.00421454 0 0.799872 0.00466893 0 0.798474 0.00511355 0 0.796978 0.00555323 0 0.795389 0.00599098 0 0.793711 0.00642787 0 0.791949 0.00686402 0 0.790107 0.00729859 0 0.788189 0.00773047 0 0.7862 0.00815829 0 0.784147 0.00858098 0 0.782034 0.00899769 0 0.779867 0.00940844 0 0.777651 0.00981383 0 0.775393 0.010216 0 0.773098 0.010618 0 0.770772 0.011025 0 0.768418 0.0114435 0 0.766042 0.0118829 0 0.763647 0.0123542 0 0.761236 0.0128717 0 0.75881 0.0134516 0 0.756371 0.014114 0 0.753917 0.0148809 0 0.751446 0.0157781 0 0.748954 0.0168333 0 0.746435 0.0180774 0 0.743879 0.0195428 0 0.741275 0.0212639 0 0.738607 0.0232754 0 0.735856 0.025612 0 0.732997 0.0283056 0 0.730001 0.031385 0 0.72683 0.0348704 0 0.723445 0.0387733 0 0.719798 0.0430869 0 0.715843 0.0477885 0 0.711539 0.0528288 0 0.706854 0.0581397 0 0.701782 0.063631 0 0.69633 0.0692025 0 0.690542 0.0747504 0 0.684473 0.0801737 0 0.678199 0.0853801 0 0.84 0 0 0.83983 0.000851182 0 0.839385 0.00164664 0 0.838737 0.00236871 0 0.837923 0.00302224 0 0.836967 0.00361776 0 0.835883 0.00417083 0 0.834683 0.00469493 0 0.833373 0.00520095 0 0.831959 0.00569711 0 0.830445 0.0061884 0 0.828837 0.00667796 0 0.827137 0.00716678 0 0.825351 0.00765486 0 0.823483 0.0081412 0 0.821538 0.00862447 0 0.819521 0.00910307 0 0.817437 0.00957571 0 0.815293 0.0100413 0 0.813095 0.0104996 0 0.810848 0.0109511 0 0.80856 0.0113976 0 0.806236 0.0118421 0 0.803883 0.0122896 0 0.801507 0.0127465 0 0.799113 0.013222 0 0.796708 0.0137269 0 0.794297 0.0142756 0 0.791883 0.014884 0 0.789471 0.0155721 0 0.787062 0.0163617 0 0.78466 0.0172784 0 0.782263 0.0183499 0 0.779872 0.0196068 0 0.777482 0.0210818 0 0.775087 0.0228095 0 0.77268 0.0248254 0 0.770247 0.0271655 0 0.76777 0.0298642 0 0.765228 0.0329539 0 0.762587 0.0364599 0 0.759812 0.0404005 0 0.756856 0.0447763 0 0.753667 0.0495725 0 0.750195 0.0547437 0 0.746394 0.0602222 0 0.74224 0.0659107 0 0.737727 0.071697 0 0.732886 0.0774626 0 0.727762 0.0830923 0 0.722425 0.0884847 0 0.8704 0 0 0.870227 0.00096179 0 0.869775 0.00184038 0 0.86912 0.00263095 0 0.868299 0.00334449 0 0.867337 0.00399585 0 0.86625 0.00460235 0 0.865045 0.00517891 0 0.863731 0.00573702 0 0.862311 0.00628536 0 0.860791 0.00682907 0 0.859175 0.00737131 0 0.857467 0.007913 0 0.85567 0.00845401 0 0.853791 0.00899311 0 0.851832 0.00952875 0 0.849801 0.0100591 0 0.847702 0.0105825 0 0.845543 0.0110977 0 0.843329 0.0116042 0 0.841067 0.012102 0 0.838764 0.0125929 0 0.836428 0.0130794 0 0.834065 0.0135664 0 0.831683 0.0140597 0 0.82929 0.0145684 0 0.826893 0.0151029 0 0.824499 0.015677 0 0.822114 0.0163064 0 0.819747 0.0170103 0 0.817402 0.01781 0 0.815086 0.0187305 0 0.812803 0.0197986 0 0.810557 0.0210446 0 0.808351 0.0225002 0 0.806184 0.0241999 0 0.804054 0.0261791 0 0.801957 0.0284746 0 0.799882 0.0311225 0 0.797813 0.0341583 0 0.795726 0.0376127 0 0.79359 0.0415117 0 0.79136 0.0458659 0 0.788982 0.0506728 0 0.786395 0.0558967 0 0.783538 0.0614771 0 0.780367 0.0673134 0 0.776853 0.0732839 0 0.773011 0.0792533 0 0.768875 0.085089 0 0.76451 0.0906765 0 0.8976 0 0 0.897426 0.00107372 0 0.896971 0.00203582 0 0.896315 0.00289455 0 0.895494 0.00366752 0 0.894536 0.00437416 0 0.893452 0.00503374 0 0.892254 0.00566265 0 0.890945 0.00627297 0 0.889531 0.00687379 0 0.888017 0.00747035 0 0.886405 0.00806582 0 0.884701 0.008661 0 0.882907 0.00925558 0 0.881029 0.00984812 0 0.879072 0.0104368 0 0.877041 0.0110195 0 0.874942 0.0115943 0 0.872782 0.0121595 0 0.870568 0.0127144 0 0.868306 0.0132587 0 0.866005 0.0137936 0 0.863672 0.0143214 0 0.861316 0.0148464 0 0.858945 0.0153741 0 0.856568 0.0159129 0 0.854195 0.0164726 0 0.851834 0.0170663 0 0.849495 0.0177088 0 0.847188 0.0184186 0 0.844922 0.0192159 0 0.842707 0.0201244 0 0.840551 0.0211699 0 0.838463 0.0223813 0 0.836451 0.0237891 0 0.834521 0.0254268 0 0.832678 0.027329 0 0.830923 0.0295323 0 0.829254 0.0320735 0 0.827663 0.0349904 0 0.826136 0.0383184 0 0.824647 0.0420912 0 0.823159 0.0463315 0 0.821617 0.0510523 0 0.819955 0.0562354 0 0.818094 0.0618358 0 0.815964 0.0677578 0 0.813509 0.0738738 0 0.81072 0.0800303 0 0.807616 0.0860725 0 0.804255 0.0918666 0 0.9216 0 0 0.921426 0.00118586 0 0.920974 0.00223106 0 0.920322 0.0031571 0 0.91951 0.00398851 0 0.918562 0.00474954 0 0.917492 0.00546149 0 0.916308 0.0061423 0 0.915016 0.0068046 0 0.913619 0.00745787 0 0.912122 0.00810739 0 0.910527 0.00875631 0 0.908838 0.00940527 0 0.907061 0.0100537 0 0.905198 0.0107001 0 0.903256 0.0113421 0 0.901239 0.0119774 0 0.899155 0.0126038 0 0.89701 0.0132193 0 0.89481 0.0138226 0 0.892564 0.014413 0 0.89028 0.0149914 0 0.887966 0.0155595 0 0.885633 0.016121 0 0.883288 0.0166807 0 0.880943 0.0172464 0 0.878608 0.0178269 0 0.876296 0.0184344 0 0.874016 0.0190825 0 0.871783 0.0197885 0 0.869608 0.0205712 0 0.867504 0.0214527 0 0.865484 0.0224571 0 0.863562 0.0236115 0 0.861749 0.0249446 0 0.860059 0.026488 0 0.8585 0.0282748 0 0.857083 0.0303402 0 0.855812 0.0327209 0 0.854689 0.0354554 0 0.853708 0.0385825 0 0.852855 0.042142 0 0.852099 0.0461687 0 0.851397 0.0506938 0 0.850677 0.0557228 0 0.84985 0.0612387 0 0.848816 0.0671623 0 0.847484 0.0733705 0 0.845809 0.0796915 0 0.843784 0.0859412 0 0.841461 0.091957 0 0.9424 0 0 0.942228 0.00129709 0 0.941783 0.00242424 0 0.941142 0.00341619 0 0.940345 0.00430462 0 0.939416 0.00511878 0 0.938369 0.0058821 0 0.93721 0.00661403 0 0.935944 0.00732777 0 0.934575 0.00803312 0 0.933106 0.00873539 0 0.931539 0.00943762 0 0.929879 0.0101403 0 0.92813 0.0108427 0 0.926297 0.0115428 0 0.924383 0.0122382 0 0.922396 0.0129262 0 0.920341 0.0136041 0 0.918225 0.0142696 0 0.916055 0.014921 0 0.91384 0.0155572 0 0.911588 0.0161783 0 0.909309 0.0167855 0 0.907012 0.0173818 0 0.904709 0.0179713 0 0.90241 0.0185605 0 0.900128 0.0191576 0 0.897877 0.0197732 0 0.895669 0.0204198 0 0.89352 0.021113 0 0.891445 0.0218697 0 0.88946 0.0227103 0 0.887582 0.0236565 0 0.885827 0.0247333 0 0.884213 0.0259671 0 0.882756 0.0273867 0 0.881473 0.0290229 0 0.880379 0.0309088 0 0.879486 0.0330794 0 0.878804 0.0355721 0 0.878338 0.0384269 0 0.878086 0.0416876 0 0.878029 0.0453983 0 0.878138 0.0496068 0 0.87835 0.0543473 0 0.878574 0.0596424 0 0.878683 0.0654492 0 0.878541 0.0716691 0 0.878053 0.0781176 0 0.877168 0.0845754 0 0.875925 0.0908348 0 0.96 0 0 0.959832 0.00140632 0 0.959397 0.00261346 0 0.958774 0.00366939 0 0.957999 0.00461304 0 0.957098 0.00547873 0 0.956082 0.00629205 0 0.954958 0.00707404 0 0.953729 0.00783834 0 0.952398 0.00859509 0 0.950968 0.00934954 0 0.949442 0.0101047 0 0.947823 0.0108607 0 0.946116 0.0116166 0 0.944324 0.0123702 0 0.942453 0.0131187 0 0.940509 0.013859 0 0.938497 0.0145881 0 0.936425 0.0153033 0 0.934301 0.0160022 0 0.932131 0.0166834 0 0.929927 0.0173463 0 0.927697 0.0179913 0 0.925452 0.0186207 0 0.923204 0.0192375 0 0.920965 0.0198474 0 0.918749 0.0204569 0 0.91657 0.0210756 0 0.914445 0.0217141 0 0.91239 0.0223861 0 0.910422 0.0231068 0 0.90856 0.023894 0 0.906825 0.0247672 0 0.905235 0.0257483 0 0.903813 0.026861 0 0.902579 0.0281311 0 0.901554 0.0295863 0 0.900759 0.0312563 0 0.900212 0.0331733 0 0.899933 0.0353719 0 0.899933 0.0378909 0 0.900224 0.0407737 0 0.900804 0.0440698 0 0.90166 0.0478373 0 0.902752 0.0521371 0 0.904005 0.0570369 0 0.905282 0.062555 0 0.906403 0.0686565 0 0.907195 0.0751654 0 0.907537 0.0818263 0 0.90743 0.0883606 0 0.9744 0 0 0.974238 0.00151246 0 0.973818 0.00279687 0 0.973218 0.0039143 0 0.972473 0.00491093 0 0.971608 0.00582621 0 0.970632 0.00668789 0 0.969551 0.00751852 0 0.968369 0.00833222 0 0.967087 0.00913936 0 0.965708 0.00994512 0 0.964234 0.0107523 0 0.962669 0.0115609 0 0.961016 0.0123697 0 0.95928 0.0131761 0 0.957465 0.0139771 0 0.955578 0.0147691 0 0.953624 0.0155488 0 0.95161 0.0163129 0 0.949545 0.0170587 0 0.947436 0.0177839 0 0.945294 0.0184875 0 0.943127 0.019169 0 0.940948 0.0198297 0 0.938769 0.0204717 0 0.936603 0.0210993 0 0.934464 0.0217177 0 0.93237 0.0223348 0 0.930336 0.0229595 0 0.928381 0.0236034 0 0.926525 0.0242794 0 0.924788 0.0250027 0 0.923194 0.0257902 0 0.921764 0.0266607 0 0.920523 0.0276345 0 0.919495 0.0287341 0 0.918704 0.0299833 0 0.918177 0.0314078 0 0.917936 0.0330358 0 0.918008 0.034898 0 0.918412 0.0370289 0 0.91917 0.0394678 0 0.920296 0.0422631 0 0.921799 0.0454748 0 0.923666 0.0491786 0 0.925862 0.0534755 0 0.928278 0.0584616 0 0.930722 0.0642222 0 0.932918 0.070654 0 0.934614 0.0774951 0 0.935742 0.0843531 0 0.9856 0 0 0.985445 0.00161445 0 0.985044 0.00297263 0 0.984473 0.00414852 0 0.983766 0.00519551 0 0.982945 0.00615809 0 0.982018 0.00706616 0 0.98099 0.00794374 0 0.979864 0.00880534 0 0.978642 0.00966155 0 0.977325 0.0105174 0 0.975915 0.0113756 0 0.974415 0.0122357 0 0.972829 0.0130964 0 0.971162 0.0139547 0 0.969417 0.0148071 0 0.9676 0.0156499 0 0.965718 0.0164793 0 0.963777 0.0172913 0 0.961786 0.0180829 0 0.959753 0.0188512 0 0.957686 0.0195943 0 0.955597 0.0203108 0 0.953498 0.0210012 0 0.951401 0.0216663 0 0.949319 0.022309 0 0.94727 0.0229332 0 0.945268 0.0235449 0 0.943333 0.0241511 0 0.941485 0.0247612 0 0.939743 0.0253856 0 0.938132 0.0260369 0 0.936674 0.0267288 0 0.935395 0.0274771 0 0.934321 0.0282986 0 0.933478 0.0292119 0 0.932894 0.0302366 0 0.932597 0.0313941 0 0.932615 0.0327075 0 0.932977 0.0342024 0 0.933712 0.0359074 0 0.934846 0.0378544 0 0.936408 0.0400848 0 0.938423 0.0426522 0 0.940907 0.0456274 0 0.943875 0.0491143 0 0.947292 0.0532636 0 0.951037 0.0583145 0 0.954772 0.0643594 0 0.958057 0.0712901 0 0.960573 0.0785431 0 0.9936 0 0 0.993453 0.00171126 0 0.993077 0.00313895 0 0.992541 0.00436971 0 0.991878 0.005464 0 0.991108 0.00647127 0 0.990239 0.00742345 0 0.989274 0.00834599 0 0.988214 0.0092537 0 0.987062 0.0101573 0 0.985817 0.0110618 0 0.984483 0.0119694 0 0.983061 0.0128797 0 0.981554 0.0137909 0 0.979968 0.0146997 0 0.978306 0.0156024 0 0.976574 0.0164947 0 0.974778 0.0173725 0 0.972925 0.0182314 0 0.971022 0.0190676 0 0.969077 0.0198776 0 0.967102 0.0206588 0 0.965104 0.0214091 0 0.963098 0.0221275 0 0.961095 0.0228139 0 0.959111 0.0234697 0 0.95716 0.0240972 0 0.955261 0.0247005 0 0.953432 0.0252846 0 0.951694 0.0258566 0 0.950069 0.0264245 0 0.948581 0.0269979 0 0.947254 0.0275877 0 0.946114 0.0282062 0 0.94519 0.0288665 0 0.944508 0.0295834 0 0.944099 0.0303722 0 0.943991 0.0312498 0 0.944216 0.0322337 0 0.944805 0.0333434 0 0.945789 0.0346005 0 0.9472 0.0360302 0 0.949074 0.0376606 0 0.95145 0.0395309 0 0.954362 0.0416938 0 0.957849 0.0442343 0 0.961969 0.0472749 0 0.966776 0.0510905 0 0.972082 0.0560829 0 0.977307 0.0627597 0 0.981602 0.0704742 0 0.9984 0 0 0.998264 0.00180184 0 0.997915 0.00329403 0 0.99742 0.00457555 0 0.996808 0.00571371 0 0.996098 0.00676271 0 0.995295 0.00775644 0 0.994401 0.00872163 0 0.993418 0.00967335 0 0.992345 0.0106224 0 0.991184 0.0115736 0 0.989936 0.0125289 0 0.988603 0.0134877 0 0.987189 0.0144476 0 0.985697 0.0154053 0 0.984132 0.0163566 0 0.982498 0.0172969 0 0.980802 0.0182216 0 0.97905 0.0191258 0 0.977249 0.0200052 0 0.975408 0.0208556 0 0.973537 0.0216736 0 0.971645 0.0224561 0 0.969745 0.0232011 0 0.967849 0.0239073 0 0.965972 0.0245745 0 0.96413 0.0252034 0 0.962342 0.0257962 0 0.960625 0.026356 0 0.959002 0.0268874 0 0.957494 0.0273958 0 0.956126 0.0278882 0 0.954922 0.0283723 0 0.95391 0.0288573 0 0.953117 0.0293527 0 0.952572 0.0298692 0 0.952304 0.030418 0 0.952344 0.0310116 0 0.952722 0.0316626 0 0.953469 0.0323831 0 0.95462 0.0331872 0 0.95621 0.0340942 0 0.958271 0.0351211 0 0.960839 0.0362878 0 0.96398 0.0376097 0 0.967751 0.0391684 0 0.972215 0.040994 0 0.977451 0.0432774 0 0.983746 0.0461353 0 0.99131 0.0511813 0 0.998293 0.0591176 0 1 0 0 0.999876 0.00188522 0 0.999558 0.00343616 0 0.99911 0.00476379 0 0.998556 0.00594198 0 0.997913 0.00702943 0 0.997184 0.00806185 0 0.996371 0.00906708 0 0.995473 0.0100604 0 0.99449 0.0110527 0 0.993423 0.0120483 0 0.992273 0.0130492 0 0.991042 0.0140542 0 0.989732 0.015061 0 0.988347 0.0160655 0 0.986891 0.0170635 0 0.985369 0.0180499 0 0.983787 0.0190196 0 0.98215 0.0199675 0 0.980466 0.0208885 0 0.978743 0.0217777 0 0.976989 0.022631 0 0.975216 0.0234444 0 0.973435 0.0242147 0 0.971658 0.0249393 0 0.9699 0.0256167 0 0.968177 0.0262459 0 0.966507 0.0268271 0 0.964909 0.0273615 0 0.963403 0.0278513 0 0.962012 0.0282995 0 0.960761 0.0287104 0 0.959673 0.0290887 0 0.958776 0.0294404 0 0.958097 0.0297718 0 0.957663 0.0300901 0 0.957503 0.0304026 0 0.957647 0.0307168 0 0.958126 0.0310405 0 0.958968 0.031382 0 0.960205 0.0317491 0 0.961866 0.0321483 0 0.963996 0.0325874 0 0.966629 0.0330756 0 0.969808 0.0336232 0 0.973565 0.0342298 0 0.978058 0.0349091 0 0.983333 0.0356817 0 0.98974 0.0365898 0 0.997226 0.0376297 0 1.00968 0.0387808 0 0.9984 0 0 0.998288 0.00196041 0 0.998006 0.00356374 0 0.997607 0.00493251 0 0.997116 0.0061468 0 0.996544 0.0072696 0 0.995894 0.00833823 0 0.995166 0.00938161 0 0.994358 0.0104152 0 0.99347 0.0114497 0 0.992503 0.0124895 0 0.991456 0.0135362 0 0.990331 0.0145885 0 0.989131 0.0156435 0 0.987859 0.0166973 0 0.986518 0.0177451 0 0.985114 0.0187815 0 0.983651 0.019801 0 0.982135 0.0207979 0 0.980572 0.0217667 0 0.978971 0.0227016 0 0.97734 0.0235976 0 0.975688 0.0244495 0 0.974028 0.025253 0 0.972371 0.0260037 0 0.970732 0.0266985 0 0.969128 0.0273344 0 0.967576 0.0279094 0 0.966095 0.028422 0 0.964709 0.0288718 0 0.963439 0.0292589 0 0.962311 0.0295842 0 0.961352 0.0298493 0 0.960591 0.0300563 0 0.960057 0.0302077 0 0.95978 0.0303066 0 0.959794 0.0303559 0 0.960133 0.0303578 0 0.960828 0.0303146 0 0.961918 0.0302293 0 0.963441 0.0301019 0 0.965437 0.0299264 0 0.967951 0.0296974 0 0.971028 0.0294099 0 0.974748 0.029052 0 0.979195 0.0285507 0 0.984468 0.027856 0 0.990735 0.0267724 0 0.998293 0.0250755 0 1.00746 0.021075 0 1.01582 0.014809 0 0.9936 0 0 0.993502 0.00202646 0 0.993255 0.00367503 0 0.992909 0.00507927 0 0.992481 0.00632503 0 0.991981 0.00747919 0 0.99141 0.0085805 0 0.990765 0.00965871 0 0.990047 0.0107293 0 0.989252 0.0118031 0 0.988381 0.012884 0 0.987434 0.0139734 0 0.986412 0.0150699 0 0.985319 0.0161702 0 0.984156 0.0172702 0 0.982926 0.0183648 0 0.981635 0.0194484 0 0.980286 0.0205149 0 0.978885 0.0215584 0 0.977438 0.0225724 0 0.975952 0.0235507 0 0.974435 0.0244872 0 0.972896 0.0253756 0 0.971347 0.0262101 0 0.969799 0.026985 0 0.968267 0.0276951 0 0.966767 0.0283353 0 0.965316 0.0289012 0 0.963933 0.0293887 0 0.962642 0.0297943 0 0.961466 0.0301148 0 0.96043 0.0303476 0 0.959563 0.0304902 0 0.958894 0.0305409 0 0.958455 0.0304974 0 0.958277 0.0303577 0 0.958396 0.0301192 0 0.958848 0.0297791 0 0.959