<?xml version="1.0"?> 
<VTKFile type="StructuredGrid" version="0.1"> 
<StructuredGrid WholeExtent="0 50 0 50 0 0"> 
<Piece Extent="0 50 0 50 0 0"> 
<PointData>
<DataArray type="Float32" Name="velocity" format="ascii" NumberOfComponents="3"> 
0 0 0 0 0 0 0 0 0 0 0 0 0 0 0 0 0 0 0 0 0 0 0 0 0 0 0 0 0 0 0 0 0 0 0 0 0 0 0 0 0 0 0 0 0 0 0 0 0 0 0 0 0 0 0 0 0 0 0 0 0 0 0 0 0 0 0 0 0 0 0 0 0 0 0 0 0 0 0 0 0 0 0 0 0 0 0 0 0 0 0 0 0 0 0 0 0 0 0 0 0 0 0 0 0 0 0 0 0 0 0 0 0 0 0 0 0 0 0 0 0 0 0 0 0 0 0 0 0 0 0 0 0 0 0 0 0 0 0 0 0 0 0 0 0 0 0 0 0 0 0 0 0 0.0785025 0.128539 0 0.0902442 0.142986 0 0.100675 0.148077 0 0.109126 0.146159 0 0.115196 0.139311 0 0.118759 0.129354 0 0.119959 0.117843 0 0.119211 0.10607 0 0.117202 0.0950674 0 0.114835 0.0855653 0 0.112563 0.0776705 0 0.110456 0.0711794 0 0.108566 0.0658927 0 0.106931 0.0616203 0 0.105578 0.0581817 0 0.104524 0.0554054 0 0.10377 0.0531295 0 0.103309 0.051202 0 0.103121 0.0495248 0 0.103179 0.0480734 0 0.103455 0.0468292 0 0.10392 0.0457736 0 0.104543 0.0448878 0 0.105291 0.044153 0 0.106131 0.0435499 0 0.107026 0.0430595 0 0.107943 0.0426619 0 0.108859 0.0423358 0 0.109755 0.0420625 0 0.110619 0.0418264 0 0.11144 0.0416151 0 0.112213 0.0414195 0 0.112935 0.0412337 0 0.113608 0.041055 0 0.114237 0.0408837 0 0.114818 0.0407196 0 0.115347 0.0405613 0 0.115817 0.0404083 0 0.116229 0.0402604 0 0.116581 0.0401185 0 0.116876 0.0399837 0 0.117118 0.0398578 0 0.117315 0.0397435 0 0.117468 0.0396417 0 0.117573 0.0395506 0 0.117631 0.0394687 0 0.117647 0.0393946 0 0.117635 0.0393274 0 0.11761 0.0392666 0 0.117596 0.039212 0 0.117621 0.0391638 0 0.178023 0.174161 0 0.179465 0.201385 0 0.185296 0.220928 0 0.193209 0.232097 0 0.201377 0.234856 0 0.20846 0.229825 0 0.213602 0.218278 0 0.216428 0.202143 0 0.217051 0.184004 0 0.21604 0.166904 0 0.214043 0.152135 0 0.21154 0.139609 0 0.208917 0.129177 0 0.206472 0.120642 0 0.204412 0.113766 0 0.202855 0.108268 0 0.201828 0.103822 0 0.201271 0.100064 0 0.201113 0.0967467 0 0.20135 0.0938454 0 0.201973 0.0913494 0 0.202956 0.0892395 0 0.204259 0.0874879 0 0.205822 0.0860589 0 0.207573 0.0849085 0 0.209423 0.0839845 0 0.21128 0.0832316 0 0.213108 0.0826108 0 0.214883 0.0820916 0 0.216589 0.0816479 0 0.218214 0.0812574 0 0.219746 0.0809025 0 0.221182 0.0805696 0 0.222519 0.0802493 0 0.22376 0.0799366 0 0.224899 0.0796311 0 0.225931 0.0793337 0 0.22685 0.0790459 0 0.227655 0.0787692 0 0.228347 0.0785057 0 0.228931 0.0782575 0 0.229413 0.0780271 0 0.229805 0.0778175 0 0.230107 0.0776295 0 0.230314 0.0774613 0 0.230428 0.0773103 0 0.230464 0.077174 0 0.230444 0.0770498 0 0.230404 0.0769348 0 0.23039 0.0768261 0 0.230458 0.0767206 0 0.273742 0.196321 0 0.266055 0.226682 0 0.264839 0.255678 0 0.268186 0.279022 0 0.274392 0.293865 0 0.281963 0.298801 0 0.289614 0.293866 0 0.296264 0.280536 0 0.301044 0.261729 0 0.303357 0.241563 0 0.303538 0.222451 0 0.302361 0.205082 0 0.300475 0.189896 0 0.298397 0.177107 0 0.29651 0.166707 0 0.295063 0.158465 0 0.294173 0.151928 0 0.293825 0.146423 0 0.293962 0.141469 0 0.294597 0.137092 0 0.295727 0.133334 0 0.297329 0.130205 0 0.299353 0.127678 0 0.301729 0.125693 0 0.304363 0.124156 0 0.307137 0.122938 0 0.309929 0.121905 0 0.31268 0.121011 0 0.315352 0.120238 0 0.317917 0.119567 0 0.320351 0.118979 0 0.32264 0.118456 0 0.324775 0.117979 0 0.326757 0.117531 0 0.328591 0.117095 0 0.330271 0.116671 0 0.331787 0.116263 0 0.333133 0.115877 0 0.334308 0.115515 0 0.335317 0.115177 0 0.336167 0.11486 0 0.336872 0.114562 0 0.33745 0.114277 0 0.337904 0.114002 0 0.338221 0.113747 0 0.338402 0.113516 0 0.338463 0.113311 0 0.338442 0.113134 0 0.33839 0.11298 0 0.338378 0.112843 0 0.338495 0.112715 0 0.356605 0.218525 0 0.347661 0.244296 0 0.342164 0.274537 0 0.340414 0.303308 0 0.342334 0.326214 0 0.347464 0.340408 0 0.35497 0.344585 0 0.363635 0.338987 0 0.371865 0.325402 0 0.377844 0.307035 0 0.381243 0.286779 0 0.38276 0.266501 0 0.383017 0.247593 0 0.38255 0.230987 0 0.381801 0.217151 0 0.381123 0.206093 0 0.380779 0.19736 0 0.380938 0.190048 0 0.38167 0.183454 0 0.382968 0.177648 0 0.38481 0.172719 0 0.387154 0.16869 0 0.389944 0.165527 0 0.393109 0.163132 0 0.396559 0.161345 0 0.400192 0.159945 0 0.403894 0.158705 0 0.407575 0.157577 0 0.411165 0.15656 0 0.414608 0.155649 0 0.417865 0.154838 0 0.420909 0.154115 0 0.423732 0.153467 0 0.426339 0.152876 0 0.428747 0.152325 0 0.430952 0.151809 0 0.432936 0.151335 0 0.434689 0.150904 0 0.43621 0.150512 0 0.437506 0.150152 0 0.438594 0.149814 0 0.439497 0.14948 0 0.440249 0.149133 0 0.440856 0.148768 0 0.441292 0.148412 0 0.441551 0.148084 0 0.441651 0.147801 0 0.441637 0.147569 0 0.441577 0.147391 0 0.441565 0.14726 0 0.441721 0.147165 0 0.431016 0.233245 0 0.42162 0.256134 0 0.413368 0.285532 0 0.407893 0.31603 0 0.406167 0.343343 0 0.408502 0.364315 0 0.414551 0.376914 0 0.423308 0.380234 0 0.433107 0.374496 0 0.441779 0.361089 0 0.448455 0.342696 0 0.453347 0.322055 0 0.45672 0.301328 0 0.458875 0.282084 0 0.460151 0.265302 0 0.460922 0.251375 0 0.461597 0.240105 0 0.462619 0.230713 0 0.46426 0.222494 0 0.466486 0.215448 0 0.469235 0.209594 0 0.472448 0.204894 0 0.476062 0.201254 0 0.480014 0.198525 0 0.484243 0.196499 0 0.488684 0.194916 0 0.493262 0.193513 0 0.497856 0.19222 0 0.502356 0.191023 0 0.506675 0.189912 0 0.510751 0.188883 0 0.514547 0.187935 0 0.51805 0.18707 0 0.521271 0.186298 0 0.524241 0.185628 0 0.526956 0.185058 0 0.529389 0.184574 0 0.531528 0.184158 0 0.53337 0.183792 0 0.534928 0.183453 0 0.536228 0.183119 0 0.537307 0.182764 0 0.538216 0.18236 0 0.538968 0.181908 0 0.539525 0.18145 0 0.539871 0.181022 0 0.540024 0.180655 0 0.540031 0.180368 0 0.539971 0.180173 0 0.539955 0.180073 0 0.540124 0.180064 0 0.498218 0.238342 0 0.487565 0.261453 0 0.477353 0.290444 0 0.469496 0.321475 0 0.46526 0.351244 0 0.465266 0.376993 0 0.46949 0.396501 0 0.477259 0.408089 0 0.487254 0.410618 0 0.497612 0.403673 0 0.507145 0.3893 0 0.515436 0.370571 0 0.52226 0.350012 0 0.527569 0.329585 0 0.531493 0.310685 0 0.534342 0.294137 0 0.536603 0.280202 0 0.538937 0.268578 0 0.541804 0.258791 0 0.545174 0.250683 0 0.548979 0.244115 0 0.553159 0.238922 0 0.557662 0.234917 0 0.562446 0.231892 0 0.567477 0.229612 0 0.572728 0.227822 0 0.578155 0.22628 0 0.58362 0.224878 0 0.588985 0.223564 0 0.594143 0.222304 0 0.599013 0.221085 0 0.603547 0.219915 0 0.607727 0.218823 0 0.611561 0.217856 0 0.615083 0.217078 0 0.618289 0.216486 0 0.621149 0.216033 0 0.623648 0.215675 0 0.625789 0.215368 0 0.62759 0.215075 0 0.629085 0.214759 0 0.630324 0.214388 0 0.631373 0.213933 0 0.632254 0.213402 0 0.632922 0.212851 0 0.633357 0.212332 0 0.633574 0.211886 0 0.63362 0.211548 0 0.633575 0.211342 0 0.633553 0.211283 0 0.633702 0.211377 0 0.556755 0.238324 0 0.546054 0.262309 0 0.535034 0.290802 0 0.525736 0.321648 0 0.519617 0.352691 0 0.517556 0.381777 0 0.519849 0.406754 0 0.526215 0.425472 0 0.53579 0.43578 0 0.547168 0.435804 0 0.558989 0.426773 0 0.570305 0.41162 0 0.580448 0.392883 0 0.589036 0.372663 0 0.595964 0.352633 0 0.601408 0.334029 0 0.605828 0.317657 0 0.609953 0.303887 0 0.614354 0.292637 0 0.619054 0.283583 0 0.624031 0.276406 0 0.629261 0.270804 0 0.634728 0.266491 0 0.640414 0.263199 0 0.646309 0.260675 0 0.652403 0.258685 0 0.658661 0.257021 0 0.664944 0.25554 0 0.671111 0.254143 0 0.677048 0.25277 0 0.68267 0.251397 0 0.687919 0.250039 0 0.692767 0.248749 0 0.697212 0.247615 0 0.701277 0.246753 0 0.704953 0.246162 0 0.708213 0.245761 0 0.71105 0.245476 0 0.71347 0.245243 0 0.715498 0.245005 0 0.717176 0.244716 0 0.718564 0.244338 0 0.719738 0.243841 0 0.720727 0.243241 0 0.721491 0.24261 0 0.722012 0.242012 0 0.7223 0.241502 0 0.7224 0.241124 0 0.722385 0.240914 0 0.72236 0.240893 0 0.72246 0.241077 0 0.606854 0.235481 0 0.597455 0.259994 0 0.586651 0.287796 0 0.576666 0.318104 0 0.569194 0.349737 0 0.565399 0.381111 0 0.565911 0.410246 0 0.570834 0.434761 0 0.579737 0.451878 0 0.591655 0.458729 0 0.605168 0.455693 0 0.618971 0.445221 0 0.632078 0.429572 0 0.643834 0.410778 0 0.653911 0.390642 0 0.66231 0.370738 0 0.669355 0.352412 0 0.675697 0.336774 0 0.681916 0.324219 0 0.68813 0.314303 0 0.694402 0.306558 0 0.700777 0.300569 0 0.707289 0.295966 0 0.713955 0.292429 0 0.720779 0.28969 0 0.727749 0.287526 0 0.734822 0.285757 0 0.741873 0.284207 0 0.748778 0.282744 0 0.755434 0.281285 0 0.761758 0.279798 0 0.767689 0.278303 0 0.773186 0.276869 0 0.778231 0.275619 0 0.782822 0.274707 0 0.786946 0.274133 0 0.790584 0.27379 0 0.793736 0.27358 0 0.796418 0.27342 0 0.798659 0.27324 0 0.800511 0.272983 0 0.802037 0.272605 0 0.803319 0.272076 0 0.804397 0.27142 0 0.805241 0.270723 0 0.805839 0.270063 0 0.806203 0.269506 0 0.80637 0.269104 0 0.806398 0.268895 0 0.806375 0.268906 0 0.806407 0.269148 0 0.650283 0.230071 0 0.642031 0.25508 0 0.631894 0.282264 0 0.621964 0.311935 0 0.61392 0.343719 0 0.609026 0.376563 0 0.608133 0.408731 0 0.611677 0.437805 0 0.619681 0.460686 0 0.631699 0.473899 0 0.64639 0.477021 0 0.662202 0.471819 0 0.677916 0.460103 0 0.692653 0.443683 0 0.705875 0.424373 0 0.717386 0.403989 0 0.727327 0.38435 0 0.736178 0.367262 0 0.744463 0.353617 0 0.752394 0.342922 0 0.760125 0.334625 0 0.767772 0.32824 0 0.775424 0.323346 0 0.783132 0.319586 0 0.790919 0.316669 0 0.798773 0.314371 0 0.806642 0.312511 0 0.814425 0.310897 0 0.822023 0.309375 0 0.829348 0.307852 0 0.836327 0.306291 0 0.842896 0.304714 0 0.849007 0.303202 0 0.854621 0.301895 0 0.859714 0.30097 0 0.864264 0.300427 0 0.868263 0.300141 0 0.871715 0.299999 0 0.874644 0.299905 0 0.877086 0.29978 0 0.879097 0.299557 0 0.880747 0.299187 0 0.88212 0.298637 0 0.883268 0.297938 0 0.884179 0.297191 0 0.884848 0.296487 0 0.885289 0.295901 0 0.885529 0.295489 0 0.885611 0.295288 0 0.885594 0.295321 0 0.885552 0.29559 0 0.688382 0.222886 0 0.680755 0.248144 0 0.671399 0.274696 0 0.661996 0.303669 0 0.65398 0.335323 0 0.648545 0.369054 0 0.646637 0.403393 0 0.64896 0.436003 0 0.655971 0.463685 0 0.667786 0.482655 0 0.683236 0.491775 0 0.700629 0.492052 0 0.718587 0.484758 0 0.736058 0.471395 0 0.752319 0.453695 0 0.766973 0.433617 0 0.779951 0.413353 0 0.791509 0.395302 0 0.802061 0.380824 0 0.811897 0.369455 0 0.821247 0.360628 0 0.830295 0.353841 0 0.839178 0.348653 0 0.847984 0.344689 0 0.856756 0.341636 0 0.86549 0.339243 0 0.874137 0.33731 0 0.882622 0.335634 0 0.890874 0.334061 0 0.898825 0.332493 0 0.906412 0.330895 0 0.913573 0.329291 0 0.920252 0.327763 0 0.926397 0.326457 0 0.93196 0.325555 0 0.936914 0.325055 0 0.941254 0.324823 0 0.944991 0.32474 0 0.948153 0.324705 0 0.950782 0.324629 0 0.952938 0.324441 0 0.954696 0.324087 0 0.956144 0.323528 0 0.957348 0.322799 0 0.958313 0.322018 0 0.959047 0.321287 0 0.959562 0.320689 0 0.959879 0.320279 0 0.960019 0.320092 0 0.960015 0.320139 0 0.9599 0.320409 0 0.721656 0.215098 0 0.714792 0.239836 0 0.706307 0.2655 0 0.697546 0.293689 0 0.689744 0.325052 0 0.684021 0.359292 0 0.681391 0.39516 0 0.682755 0.430464 0 0.688903 0.462059 0 0.700388 0.486095 0 0.716254 0.500841 0 0.734801 0.50654 0 0.754596 0.5039 0 0.774488 0.494064 0 0.793607 0.47861 0 0.811366 0.459554 0 0.82746 0.439343 0 0.841866 0.42084 0 0.854837 0.405811 0 0.866723 0.393895 0 0.877824 0.384578 0 0.888381 0.377393 0 0.898576 0.371917 0 0.908533 0.367769 0 0.918316 0.364616 0 0.927932 0.362168 0 0.937338 0.360178 0 0.946494 0.358446 0 0.955359 0.356829 0 0.963889 0.355236 0 0.972034 0.353637 0 0.979738 0.352055 0 0.98694 0.350569 0 0.993575 0.349317 0 0.999575 0.34847 0 1.00491 0.348023 0 1.00957 0.347843 0 1.01357 0.347812 0 1.01695 0.347826 0 1.01975 0.347794 0 1.02204 0.347642 0 1.02389 0.347309 0 1.0254 0.346752 0 1.02664 0.346007 0 1.02765 0.345207 0 1.02844 0.344466 0 1.02903 0.34387 0 1.02942 0.343474 0 1.02962 0.343304 0 1.02964 0.34336 0 1.02945 0.343609 0 0.750598 0.206868 0 0.744837 0.230537 0 0.737293 0.25513 0 0.729157 0.282469 0 0.721582 0.313411 0 0.715688 0.347857 0 0.712552 0.384743 0 0.713219 0.422043 0 0.718693 0.456771 0 0.729806 0.48517 0 0.745822 0.505038 0 0.765153 0.515909 0 0.786402 0.517946 0 0.808386 0.51192 0 0.830134 0.499207 0 0.850883 0.481795 0 0.870086 0.462277 0 0.887409 0.443827 0 0.902903 0.428545 0 0.916955 0.416231 0 0.92992 0.406486 0 0.942082 0.398925 0 0.953663 0.39317 0 0.964815 0.388859 0 0.975627 0.385638 0 0.98612 0.383166 0 0.996268 0.381136 0 1.00606 0.379357 0 1.0155 0.377707 0 1.02457 0.376111 0 1.03322 0.374545 0 1.04142 0.37303 0 1.04909 0.371636 0 1.05617 0.370483 0 1.06257 0.369721 0 1.06825 0.369337 0 1.0732 0.369208 0 1.07745 0.369222 0 1.08103 0.369276 0 1.08399 0.369283 0 1.08639 0.369166 0 1.08833 0.368859 0 1.08988 0.368312 0 1.09116 0.367564 0 1.09219 0.366761 0 1.09303 0.366025 0 1.09369 0.365445 0 1.09416 0.365072 0 1.09442 0.364923 0 1.09446 0.364982 0 1.09421 0.365195 0 0.77571 0.197378 0 0.77113 0.220365 0 0.76457 0.244077 0 0.757114 0.270562 0 0.749865 0.300902 0 0.743937 0.335209 0 0.740462 0.372632 0 0.740588 0.411347 0 0.745477 0.448568 0 0.75617 0.480684 0 0.772156 0.505118 0 0.792007 0.520789 0 0.814412 0.527371 0 0.838196 0.525276 0 0.862315 0.515655 0 0.885862 0.5004 0 0.908062 0.482142 0 0.928282 0.464222 0 0.946356 0.448989 0 0.962673 0.436448 0 0.977607 0.426364 0 0.991468 0.418466 0 1.0045 0.412455 0 1.01688 0.407998 0 1.02872 0.404731 0 1.04007 0.402258 0 1.05094 0.400203 0 1.06135 0.39839 0 1.07133 0.396724 0 1.08089 0.39515 0 1.09 0.393649 0 1.09863 0.392241 0 1.10672 0.390982 0 1.1142 0.389966 0 1.12095 0.389311 0 1.12695 0.389001 0 1.13217 0.388923 0 1.13665 0.388976 0 1.14041 0.389065 0 1.14351 0.389105 0 1.14602 0.389019 0 1.14801 0.388741 0 1.1496 0.388214 0 1.15089 0.387476 0 1.15195 0.386685 0 1.15283 0.385969 0 1.15355 0.385415 0 1.15409 0.385072 0 1.15442 0.384946 0 1.15448 0.385004 0 1.15417 0.385172 0 0.797549 0.186273 0 0.793948 0.209346 0 0.788341 0.232571 0 0.781649 0.2583 0 0.774867 0.287901 0 0.769066 0.321762 0 0.765394 0.359288 0 0.765073 0.398898 0 0.769404 0.438033 0 0.779625 0.473252 0 0.79545 0.501689 0 0.815629 0.521742 0 0.838952 0.532655 0 0.864273 0.534505 0 0.890501 0.528204 0 0.91661 0.515497 0 0.94163 0.498966 0 0.964661 0.481998 0 0.985327 0.467107 0 1.00398 0.45453 0 1.02096 0.444219 0 1.0366 0.436049 0 1.05113 0.429814 0 1.06475 0.425227 0 1.07761 0.421924 0 1.0898 0.419462 0 1.10136 0.417398 0 1.11236 0.415569 0 1.12286 0.413912 0 1.13287 0.412387 0 1.14239 0.410984 0 1.15141 0.409716 0 1.15986 0.408623 0 1.16767 0.407772 0 1.17474 0.407244 0 1.18101 0.407016 0 1.18648 0.406993 0 1.19116 0.407082 0 1.19509 0.4072 0 1.19831 0.407267 0 1.2009 0.40721 0 1.20295 0.406961 0 1.20456 0.40646 0 1.20586 0.405746 0 1.20693 0.404982 0 1.20784 0.404299 0 1.20861 0.403783 0 1.20922 0.403475 0 1.20961 0.403372 0 1.20969 0.403425 0 1.20933 0.403541 0 0.816646 0.174287 0 0.813825 0.197668 0 0.809053 0.22063 0 0.803084 0.245747 0 0.796801 0.274621 0 0.791215 0.30788 0 0.787465 0.345181 0 0.786816 0.385208 0 0.790664 0.425671 0 0.800397 0.463373 0 0.815951 0.495248 0 0.836273 0.51925 0 0.860279 0.53424 0 0.886874 0.539979 0 0.914948 0.537129 0 0.943378 0.527253 0 0.971028 0.512814 0 0.996758 0.49715 0 1.01999 0.482876 0 1.04099 0.470461 0 1.06007 0.460061 0 1.07753 0.451702 0 1.09359 0.445286 0 1.10848 0.440586 0 1.12235 0.437252 0 1.13535 0.434803 0 1.14758 0.432742 0 1.15914 0.430921 0 1.17011 0.429299 0 1.18053 0.427855 0 1.19042 0.426579 0 1.19976 0.425479 0 1.20851 0.424577 0 1.2166 0.42391 0 1.22394 0.423523 0 1.23045 0.423386 0 1.23613 0.42342 0 1.24099 0.423546 0 1.24506 0.42369 0 1.24839 0.423779 0 1.25105 0.423746 0 1.25313 0.423525 0 1.25476 0.423056 0 1.25605 0.422379 0 1.25713 0.421656 0 1.25807 0.421019 0 1.25888 0.420548 0 1.25955 0.420279 0 1.25999 0.420198 0 1.2601 0.420243 0 1.25971 0.420305 0 0.833398 0.162205 0 0.831196 0.185656 0 0.827102 0.208375 0 0.821746 0.232989 0 0.815919 0.261202 0 0.810573 0.293797 0 0.806826 0.33064 0 0.805957 0.370675 0 0.809408 0.411925 0 0.818661 0.451516 0 0.833854 0.486273 0 0.854154 0.513776 0 0.878623 0.532547 0 0.906241 0.542052 0 0.935899 0.5427 0 0.966405 0.535841 0 0.996481 0.523772 0 1.02477 0.509706 0 1.05049 0.496297 0 1.07383 0.484242 0 1.09502 0.473897 0 1.11431 0.465446 0 1.13193 0.458902 0 1.14807 0.454112 0 1.16295 0.450747 0 1.17674 0.448312 0 1.18962 0.446268 0 1.2017 0.444477 0 1.2131 0.442921 0 1.22388 0.441586 0 1.23408 0.440464 0 1.24369 0.439554 0 1.25269 0.438859 0 1.26101 0.438389 0 1.26856 0.438152 0 1.27528 0.438115 0 1.28114 0.438211 0 1.28615 0.438374 0 1.29034 0.43854 0 1.29375 0.438648 0 1.29646 0.438634 0 1.29857 0.438441 0 1.3002 0.43801 0 1.30148 0.437379 0 1.30256 0.436711 0 1.30352 0.43613 0 1.30436 0.435712 0 1.30508 0.435483 0 1.30557 0.435422 0 1.30571 0.435457 0 1.30529 0.435466 0 0.848067 0.150803 0 0.846375 0.173771 0 0.842826 0.196051 0 0.837964 0.220144 0 0.832515 0.247719 0 0.827387 0.279616 0 0.823671 0.315842 0 0.822642 0.355577 0 0.825753 0.39717 0 0.834531 0.43812 0 0.849299 0.475226 0 0.869447 0.505768 0 0.894193 0.527981 0 0.922604 0.541063 0 0.953594 0.545177 0 0.985922 0.541443 0 1.0182 0.531949 0 1.04888 0.51972 0 1.077 0.507395 0 1.10262 0.495884 0 1.1259 0.485737 0 1.14703 0.477294 0 1.16619 0.470684 0 1.18359 0.465831 0 1.19945 0.462444 0 1.21401 0.460026 0 1.22749 0.458012 0 1.24007 0.456275 0 1.25186 0.45481 0 1.26295 0.45361 0 1.2734 0.452664 0 1.28323 0.451961 0 1.29242 0.451485 0 1.30091 0.451218 0 1.30863 0.451139 0 1.3155 0.451206 0 1.3215 0.451367 0 1.32663 0.451568 0 1.33091 0.451757 0 1.33439 0.45188 0 1.33714 0.451884 0 1.33926 0.451717 0 1.34088 0.451328 0 1.34215 0.450754 0 1.34322 0.45015 0 1.34418 0.449633 0 1.34506 0.449272 0 1.34581 0.449086 0 1.34635 0.449045 0 1.34651 0.449068 0 1.34608 0.449027 0 0.860854 0.140492 0 0.859626 0.162416 0 0.856527 0.183959 0 0.852053 0.20739 0 0.846892 0.234259 0 0.841923 0.265388 0 0.838214 0.300876 0 0.837025 0.340098 0 0.839809 0.381705 0 0.848104 0.42357 0 0.8624 0.462528 0 0.882294 0.495641 0 0.907161 0.520923 0 0.936161 0.53734 0 0.968243 0.544821 0 1.00214 0.54425 0 1.03637 0.537471 0 1.06926 0.527268 0 1.09966 0.516212 0 1.12749 0.505409 0 1.15282 0.495594 0 1.17575 0.487259 0 1.19644 0.48065 0 1.21507 0.475771 0 1.23189 0.472378 0 1.24718 0.469985 0 1.26123 0.468018 0 1.27425 0.466355 0 1.28638 0.465003 0 1.29774 0.463957 0 1.30839 0.463203 0 1.31838 0.462717 0 1.3277 0.462467 0 1.33631 0.462409 0 1.34414 0.46249 0 1.35113 0.462665 0 1.35723 0.462893 0 1.36245 0.463134 0 1.36679 0.463344 0 1.37032 0.463482 0 1.37309 0.463503 0 1.37521 0.463364 0 1.37681 0.463019 0 1.37806 0.462509 0 1.37911 0.461977 0 1.38007 0.461531 0 1.38096 0.46123 0 1.38175 0.461087 0 1.38232 0.461063 0 1.38251 0.461075 0 1.38207 0.460987 0 0.872015 0.131017 0 0.871235 0.151676 0 0.868496 0.172304 0 0.864292 0.194936 0 0.859305 0.220985 0 0.854403 0.251239 0 0.850644 0.285864 0 0.849271 0.324399 0 0.851716 0.365763 0 0.859511 0.408165 0 0.873283 0.448521 0 0.89283 0.483759 0 0.917674 0.511726 0 0.947074 0.531201 0 0.98002 0.541897 0 1.01524 0.544462 0 1.05119 0.540473 0 1.08608 0.532429 0 1.11861 0.522793 0 1.14856 0.512844 0 1.17587 0.50349 0 1.20055 0.495364 0 1.22273 0.488826 0 1.24255 0.483962 0 1.26029 0.480583 0 1.27627 0.478228 0 1.29085 0.476323 0 1.30427 0.474754 0 1.31669 0.473534 0 1.32826 0.472658 0 1.33906 0.472106 0 1.34915 0.471844 0 1.35855 0.471821 0 1.36722 0.471969 0 1.37512 0.472211 0 1.38217 0.472496 0 1.38834 0.472794 0 1.3936 0.473075 0 1.39798 0.473308 0 1.40153 0.473461 0 1.4043 0.473499 0 1.40641 0.473388 0 1.40799 0.473092 0 1.40921 0.47265 0 1.41024 0.472195 0 1.41118 0.471823 0 1.41208 0.471585 0 1.41289 0.471484 0 1.4135 0.471477 0 1.41371 0.471477 0 1.41327 0.471349 0 0.88182 0.121882 0 0.881451 0.141439 0 0.878974 0.161168 0 0.874915 0.182932 0 0.869977 0.208054 0 0.865038 0.237313 0 0.86115 0.270942 0 0.859542 0.308633 0 0.861616 0.349534 0 0.868878 0.392145 0 0.882073 0.433491 0 0.901182 0.470433 0 0.92587 0.500707 0 0.95549 0.522944 0 0.989085 0.536664 0 1.02539 0.54228 0 1.06282 0.541095 0 1.09951 0.535295 0 1.13401 0.527197 0 1.16595 0.518231 0 1.19514 0.509457 0 1.22152 0.501639 0 1.24511 0.495243 0 1.26609 0.490437 0 1.2847 0.487095 0 1.30132 0.48479 0 1.31638 0.482963 0 1.33014 0.481507 0 1.34281 0.480435 0 1.35453 0.479742 0 1.36542 0.479399 0 1.37556 0.479361 0 1.38497 0.47956 0 1.39365 0.479911 0 1.40156 0.480311 0 1.40863 0.480705 0 1.41482 0.481074 0 1.4201 0.481398 0 1.42449 0.481656 0 1.42803 0.481824 0 1.43079 0.481879 0 1.43287 0.481797 0 1.43442 0.481552 0 1.4356 0.481183 0 1.43659 0.480808 0 1.43753 0.480513 0 1.43842 0.480336 0 1.43924 0.480276 0 1.43987 0.480286 0 1.4401 0.480276 0 1.43967 0.480113 0 0.890544 0.112399 0 0.890481 0.131422 0 0.888146 0.150512 0 0.884112 0.171472 0 0.879108 0.195616 0 0.874026 0.223766 0 0.869919 0.25626 0 0.868 0.292942 0 0.869642 0.333171 0 0.876322 0.375695 0 0.888883 0.417663 0 0.907471 0.455925 0 0.931879 0.48815 0 0.961553 0.51285 0 0.995592 0.529375 0 1.03275 0.537912 0 1.07142 0.53949 0 1.10969 0.535967 0 1.14599 0.529494 0 1.17978 0.52162 0 1.21074 0.513536 0 1.23871 0.506119 0 1.26366 0.499935 0 1.28572 0.495232 0 1.30515 0.491948 0 1.32236 0.489704 0 1.33784 0.487971 0 1.35189 0.486645 0 1.36474 0.485737 0 1.37656 0.485236 0 1.38748 0.485105 0 1.3976 0.485287 0 1.40697 0.485701 0 1.41561 0.486245 0 1.42348 0.486797 0 1.43052 0.487299 0 1.43668 0.487741 0 1.44194 0.48811 0 1.4463 0.488393 0 1.44981 0.488578 0 1.45254 0.488651 0 1.45459 0.488598 0 1.45609 0.488405 0 1.45723 0.488111 0 1.45819 0.487819 0 1.45909 0.4876 0 1.45998 0.487485 0 1.4608 0.487464 0 1.46144 0.48749 0 1.46169 0.487471 0 1.46128 0.487281 0 0.898404 0.102555 0 0.898492 0.121492 0 0.89617 0.140231 0 0.892044 0.16054 0 0.886867 0.18375 0 0.88154 0.21075 0 0.877117 0.241992 0 0.874796 0.277485 0 0.875928 0.316803 0 0.881962 0.358947 0 0.893828 0.401207 0 0.911813 0.440448 0 0.935824 0.474301 0 0.965393 0.501178 0 0.999678 0.520274 0 1.03746 0.531566 0 1.07714 0.535815 0 1.11676 0.534559 0 1.15467 0.529766 0 1.19015 0.523072 0 1.22276 0.515776 0 1.25222 0.508848 0 1.27844 0.502941 0 1.3015 0.498382 0 1.32168 0.495176 0 1.33942 0.493004 0 1.35525 0.491378 0 1.36953 0.490199 0 1.3825 0.489468 0 1.39435 0.489166 0 1.40524 0.489247 0 1.41529 0.489642 0 1.42457 0.49026 0 1.4331 0.490983 0 1.44088 0.491679 0 1.44784 0.492287 0 1.45393 0.492801 0 1.45912 0.493216 0 1.46343 0.493527 0 1.46689 0.49373 0 1.46956 0.493821 0 1.47156 0.493798 0 1.47301 0.493657 0 1.4741 0.493439 0 1.47502 0.49323 0 1.47589 0.493087 0 1.47675 0.493031 0 1.47757 0.493049 0 1.47822 0.493088 0 1.47848 0.493063 0 1.47809 0.49285 0 0.905388 0.0938415 0 0.905609 0.112092 0 0.903222 0.130308 0 0.898891 0.150021 0 0.893415 0.172418 0 0.887721 0.198345 0 0.882871 0.2283 0 0.880058 0.26244 0 0.880605 0.300576 0 0.885931 0.34203 0 0.897033 0.384271 0 0.914326 0.424188 0 0.937818 0.459376 0 0.967125 0.488158 0 1.00146 0.509587 0 1.03965 0.523443 0 1.0801 0.530232 0 1.12086 0.53119 0 1.16018 0.5281 0 1.19718 0.522656 0 1.23129 0.516229 0 1.26211 0.50987 0 1.28949 0.504301 0 1.31348 0.499923 0 1.33433 0.496813 0 1.35252 0.494722 0 1.36865 0.493217 0 1.38309 0.492198 0 1.3961 0.491655 0 1.40792 0.491557 0 1.41872 0.491846 0 1.42863 0.492445 0 1.43775 0.493252 0 1.44613 0.49414 0 1.45376 0.49497 0 1.46059 0.495679 0 1.46656 0.496264 0 1.47166 0.496725 0 1.47588 0.497065 0 1.47925 0.497286 0 1.48186 0.497395 0 1.48379 0.4974 0 1.48518 0.497311 0 1.48621 0.497169 0 1.48708 0.497043 0 1.48791 0.496975 0 1.48875 0.496977 0 1.48955 0.49703 0 1.49019 0.497081 0 1.49047 0.49705 0 1.4901 0.496822 0 0.91131 0.0868562 0 0.911879 0.103473 0 0.909456 0.120803 0 0.90484 0.139893 0 0.898928 0.161591 0 0.89272 0.186551 0 0.887313 0.215233 0 0.883905 0.247902 0 0.883792 0.284625 0 0.888345 0.325109 0 0.898612 0.367041 0 0.915117 0.40734 0 0.937968 0.443574 0 0.966856 0.47399 0 1.00106 0.497506 0 1.03944 0.51372 0 1.08044 0.522901 0 1.12211 0.525997 0 1.16263 0.524604 0 1.20097 0.520447 0 1.23641 0.51495 0 1.26846 0.50922 0 1.29689 0.504043 0 1.3217 0.499886 0 1.34315 0.496895 0 1.36172 0.494899 0 1.37805 0.493526 0 1.39257 0.492678 0 1.40557 0.492328 0 1.41728 0.492433 0 1.42792 0.492924 0 1.43763 0.493714 0 1.44654 0.494693 0 1.4547 0.49573 0 1.46213 0.496682 0 1.46878 0.497485 0 1.47459 0.498137 0 1.47955 0.498644 0 1.48364 0.499011 0 1.48691 0.499251 0 1.48943 0.499378 0 1.49128 0.499412 0 1.4926 0.499374 0 1.49356 0.499306 0 1.49438 0.499261 0 1.49516 0.499266 0 1.49596 0.499323 0 1.49674 0.499408 0 1.49737 0.49947 0 1.49766 0.499434 0 1.49732 0.499195 0 0.915826 0.0809292 0 0.917265 0.0955717 0 0.914999 0.111848 0 0.910079 0.13026 0 0.903602 0.151267 0 0.896709 0.175292 0 0.890583 0.202714 0 0.886453 0.233875 0 0.885593 0.269076 0 0.889302 0.308388 0 0.898657 0.349738 0 0.914283 0.39011 0 0.936372 0.427079 0 0.964692 0.458834 0 0.998581 0.484184 0 1.03695 0.502553 0 1.07828 0.513981 0 1.12064 0.519129 0 1.16215 0.5194 0 1.20163 0.516532 0 1.23823 0.511991 0 1.27135 0.506931 0 1.3007 0.502189 0 1.32622 0.498293 0 1.34816 0.495456 0 1.36702 0.493578 0 1.38349 0.492351 0 1.398 0.491677 0 1.41089 0.491517 0 1.42243 0.491816 0 1.43283 0.492497 0 1.44229 0.493463 0 1.45092 0.494599 0 1.45881 0.495771 0 1.46599 0.496831 0 1.47241 0.497717 0 1.47802 0.49843 0 1.48279 0.498977 0 1.48673 0.499371 0 1.48986 0.499629 0 1.49227 0.499775 0 1.49403 0.499837 0 1.49526 0.49985 0 1.49616 0.499854 0 1.49691 0.499886 0 1.49764 0.499959 0 1.49839 0.500068 0 1.49913 0.500184 0 1.49975 0.500257 0 1.50005 0.500215 0 1.49974 0.499966 0 0.92172 0.0863242 0 0.920719 0.100845 0 0.916311 0.117036 0 0.909759 0.13546 0 0.902295 0.156575 0 0.895124 0.180735 0 0.88942 0.208195 0 0.886331 0.239102 0 0.886974 0.273504 0 0.892424 0.311196 0 0.903514 0.350273 0 0.920677 0.388134 0 0.943971 0.422692 0 0.973085 0.452396 0 1.00733 0.476228 0 1.04566 0.493707 0 1.08664 0.504886 0 1.12848 0.510357 0 1.16943 0.511357 0 1.20834 0.50942 0 1.24438 0.50585 0 1.27697 0.501681 0 1.3058 0.497679 0 1.33083 0.494344 0 1.3523 0.491907 0 1.37069 0.490332 0 1.38667 0.489395 0 1.40069 0.489004 0 1.41307 0.48911 0 1.42411 0.489649 0 1.43403 0.490539 0 1.44302 0.49168 0 1.45121 0.492959 0 1.45869 0.494245 0 1.46549 0.495398 0 1.47157 0.496357 0 1.47689 0.497125 0 1.48141 0.497712 0 1.48513 0.498134 0 1.4881 0.498414 0 1.49037 0.498583 0 1.49202 0.498677 0 1.49316 0.498741 0 1.49398 0.498815 0 1.49466 0.498919 0 1.49533 0.499056 0 1.49604 0.499212 0 1.49674 0.499355 0 1.49734 0.499438 0 1.49763 0.499394 0 1.49737 0.499142 0 0.924359 0.0917079 0 0.921176 0.105872 0 0.914992 0.121883 0 0.907199 0.140255 0 0.899105 0.161372 0 0.891932 0.185489 0 0.886817 0.21273 0 0.884811 0.243088 0 0.886881 0.276427 0 0.893897 0.312366 0 0.906486 0.349172 0 0.924923 0.384601 0 0.949157 0.416858 0 0.978815 0.444614 0 1.0132 0.467001 0 1.05129 0.483617 0 1.09174 0.494526 0 1.13288 0.500256 0 1.17309 0.501898 0 1.21126 0.500806 0 1.24656 0.498134 0 1.27845 0.49481 0 1.30662 0.49153 0 1.33105 0.488766 0 1.35194 0.486756 0 1.36978 0.485515 0 1.38521 0.484884 0 1.39869 0.484779 0 1.41055 0.485146 0 1.42107 0.485913 0 1.43049 0.486996 0 1.43901 0.488298 0 1.44675 0.489706 0 1.45381 0.491096 0 1.46023 0.492335 0 1.46597 0.493367 0 1.47098 0.494194 0 1.47524 0.494828 0 1.47875 0.495288 0 1.48155 0.495601 0 1.48367 0.495803 0 1.48521 0.495937 0 1.48627 0.496053 0 1.48702 0.496192 0 1.48764 0.496362 0 1.48825 0.496555 0 1.4889 0.496751 0 1.48956 0.496919 0 1.49013 0.497012 0 1.49042 0.496972 0 1.4902 0.496728 0 0.923835 0.0966326 0 0.918723 0.110468 0 0.911099 0.126296 0 0.902415 0.144555 0 0.893998 0.165542 0 0.887049 0.189417 0 0.882641 0.216195 0 0.881724 0.245753 0 0.885121 0.277826 0 0.893522 0.31192 0 0.907379 0.34647 0 0.926837 0.379546 0 0.951759 0.409606 0 0.981723 0.435509 0 1.01603 0.45652 0 1.05369 0.472303 0 1.09343 0.482926 0 1.13372 0.488862 0 1.17302 0.491071 0 1.21027 0.490745 0 1.24468 0.488905 0 1.27573 0.48638 0 1.30312 0.483802 0 1.32682 0.48161 0 1.34704 0.480046 0 1.36425 0.479159 0 1.37909 0.478843 0 1.392 0.479024 0 1.4033 0.479641 0 1.41329 0.480622 0 1.42221 0.481884 0 1.43024 0.48333 0 1.43753 0.484855 0 1.44416 0.486338 0 1.4502 0.487658 0 1.45559 0.48876 0 1.4603 0.489649 0 1.46429 0.490335 0 1.46759 0.490841 0 1.4702 0.491196 0 1.47218 0.491439 0 1.47361 0.491618 0 1.47459 0.491787 0 1.47527 0.491987 0 1.47582 0.492215 0 1.47638 0.492456 0 1.47698 0.492687 0 1.47759 0.492876 0 1.47812 0.49298 0 1.47841 0.492948 0 1.47823 0.492721 0 0.92018 0.100926 0 0.913406 0.114536 0 0.904662 0.130189 0 0.895399 0.148256 0 0.886919 0.168965 0 0.88037 0.192397 0 0.876747 0.218491 0 0.876894 0.24704 0 0.881501 0.277691 0 0.891101 0.309881 0 0.906 0.342207 0 0.926237 0.37301 0 0.951605 0.400968 0 0.98165 0.42511 0 1.01567 0.44481 0 1.05271 0.45979 0 1.09159 0.470119 0 1.13086 0.476216 0 1.1691 0.478925 0 1.20528 0.479292 0 1.23867 0.478221 0 1.26874 0.47645 0 1.29523 0.474549 0 1.3181 0.472925 0 1.33757 0.471816 0 1.3541 0.471296 0 1.36829 0.471299 0 1.38059 0.471758 0 1.39132 0.472614 0 1.40076 0.473793 0 1.40916 0.475217 0 1.4167 0.476792 0 1.42353 0.478419 0 1.42974 0.479986 0 1.43538 0.48138 0 1.44043 0.48255 0 1.44483 0.4835 0 1.44856 0.484243 0 1.45163 0.484801 0 1.45406 0.485205 0 1.4559 0.485496 0 1.45722 0.485723 0 1.45811 0.485945 0 1.45872 0.4862 0 1.45922 0.486479 0 1.45972 0.486761 0 1.46026 0.487022 0 1.46083 0.487229 0 1.46133 0.487345 0 1.46161 0.487325 0 1.46145 0.487118 0 0.913377 0.104655 0 0.905242 0.118051 0 0.895685 0.133478 0 0.886119 0.151245 0 0.87779 0.17152 0 0.871772 0.194327 0 0.868975 0.219545 0 0.870134 0.246913 0 0.875821 0.276023 0 0.886433 0.306275 0 0.902154 0.336417 0 0.922939 0.36503 0 0.948525 0.390985 0 0.978436 0.413453 0 1.01198 0.431906 0 1.04824 0.446111 0 1.08609 0.456139 0 1.1242 0.462358 0 1.16123 0.465506 0 1.19621 0.466501 0 1.22844 0.466139 0 1.25742 0.465075 0 1.28289 0.463824 0 1.30485 0.462756 0 1.32349 0.462103 0 1.33927 0.461953 0 1.35278 0.462271 0 1.36443 0.463 0 1.37457 0.464079 0 1.38346 0.465441 0 1.39133 0.467009 0 1.39838 0.468698 0 1.40475 0.470414 0 1.41054 0.472054 0 1.41579 0.473515 0 1.42048 0.474749 0 1.42457 0.475761 0 1.42803 0.476562 0 1.43088 0.477175 0 1.43313